ITEM: TIMESTEP
0
ITEM: NUMBER OF ATOMS
18
ITEM: BOX BOUNDS pp pp pp
-0.0 4.7333213
-0.0 4.10115034
-0.0 10.83966
ITEM: ATOMS id type x y z
1 7 -0.0030984350 2.0310100646 6.9412183484
2 7 2.0285238149 0.0032880459 3.4206459386
3 7 2.5983187691 2.5920189078 -0.0021203376
4 16 2.6361549051 2.6377459278 5.4231294044
5 16 0.0018732099 2.0988983637 1.8087062999
6 16 2.1011014547 0.0002092894 8.3931954018
7 4 2.7325312126 3.8830056636 10.1441276435
8 4 0.3853110970 3.1060886822 2.9037050113
9 4 1.6207730360 2.0304519545 6.5201112359
10 4 3.1038315301 0.3834871569 7.9333407564
11 4 1.8909392145 1.6345783578 4.3187741812
12 4 3.8818249985 2.7276482071 0.7114215221
13 4 1.2661527095 1.9180307226 1.4560208195
14 4 0.3813453525 0.0006610260 7.1561714453
15 4 2.7390809661 1.9208797302 4.4800238962
16 4 1.1305843950 0.0001751924 8.5206182512
17 4 2.0408735015 1.3732341974 6.4420642418
18 4 1.9218923288 0.0000824767 5.3075286335
ITEM: TIMESTEP
1
ITEM: NUMBER OF ATOMS
18
ITEM: BOX BOUNDS pp pp pp
-0.0 4.7333213
-0.0 4.10115034
-0.0 10.83966
ITEM: ATOMS id type x y z
1 7 -0.0087890008 2.0327189040 6.9358589395
2 7 2.0278993873 0.0085559452 3.4231236566
3 7 2.5960881031 2.5887154858 -0.0032046228
4 16 2.6355056058 2.6407965715 5.4243315828
5 16 0.0017500005 2.0964801240 1.8053865712
6 16 2.1083102189 -0.0020864803 8.3908146079
7 4 2.7317617618 3.8855215498 10.1467187080
8 4 0.3850330337 3.1071773954 2.9026295237
9 4 1.6062764033 2.0541927586 6.5248444004
10 4 3.1040249828 0.3843932601 7.9324908653
11 4 1.8787433551 1.6309673788 4.3146318043
12 4 3.8829263136 2.7263308804 0.7123860733
13 4 1.2693038042 1.9179530084 1.4548420395
14 4 0.3806121574 0.0014281248 7.1555899410
15 4 2.7504179510 1.9261604922 4.4826656601
16 4 1.1268016743 -0.0026496390 8.5238197535
17 4 2.0567184908 1.3495369263 6.4407309230
18 4 1.9219799920 -0.0030842757 5.3065667593
ITEM: TIMESTEP
2
ITEM: NUMBER OF ATOMS
18
ITEM: BOX BOUNDS pp pp pp
-0.0 4.7333213
-0.0 4.10115034
-0.0 10.83966
ITEM: ATOMS id type x y z
1 7 -0.0067258970 2.0334871137 6.9357367217
2 7 2.0285093390 0.0109973019 3.4251038569
3 7 2.5894263776 2.5928420094 -0.0015907667
4 16 2.6357875828 2.6449846239 5.4292637491
5 16 0.0022970116 2.0923985859 1.8045545613
6 16 2.1131367203 -0.0038662101 8.3912963582
7 4 2.7292408742 3.8867697727 10.1461871557
8 4 0.3833167710 3.1068789864 2.9028241835
9 4 1.5944345362 2.0688733216 6.5285803475
10 4 3.1020786401 0.3849459249 7.9319934525
11 4 1.8665995118 1.6268773049 4.3113834603
12 4 3.8877166047 2.7258914459 0.7106742061
13 4 1.2693489730 1.9186749594 1.4563035967
14 4 0.3799282497 0.0012127504 7.1546340037
15 4 2.7639097041 1.9275200945 4.4773585583
16 4 1.1238187468 -0.0014660867 8.5258136633
17 4 2.0687771325 1.3328686941 6.4396721350
18 4 1.9236691413 -0.0028474197 5.3086158582
ITEM: TIMESTEP
3
ITEM: NUMBER OF ATOMS
18
ITEM: BOX BOUNDS pp pp pp
-0.0 4.7333213
-0.0 4.10115034
-0.0 10.83966
ITEM: ATOMS id type x y z
1 7 0.0002319411 2.0342960558 6.9421011792
2 7 2.0315866652 0.0137360657 3.4214857546
3 7 2.5866880069 2.5937216651 0.0021481806
4 16 2.6354014295 2.6462238667 5.4333930171
5 16 0.0056815311 2.0919843578 1.8037051146
6 16 2.1166622375 -0.0031894534 8.3934626448
7 4 2.7262071480 3.8880403336 10.1470458632
8 4 0.3837495725 3.1043582247 2.9023760875
9 4 1.5866381054 2.0816118347 6.5326997726
10 4 3.1011688993 0.3837908896 7.9313265243
11 4 1.8586173130 1.6257198837 4.3057840327
12 4 3.8881766633 2.7263557799 0.7123878884
13 4 1.2663076086 1.9176934425 1.4556781161
14 4 0.3797713939 0.0001842722 7.1537072848
15 4 2.7726536690 1.9314331811 4.4773746243
16 4 1.1189810693 0.0017604061 8.5254241930
17 4 2.0792795203 1.3181112415 6.4389545516
18 4 1.9249095277 -0.0053318943 5.3058130879
ITEM: TIMESTEP
4
ITEM: NUMBER OF ATOMS
18
ITEM: BOX BOUNDS pp pp pp
-0.0 4.7333213
-0.0 4.10115034
-0.0 10.83966
ITEM: ATOMS id type x y z
1 7 0.0059151720 2.0302171300 6.9451145767
2 7 2.0313751035 0.0138108941 3.4217727670
3 7 2.5857994680 2.5909590810 0.0009846419
4 16 2.6372578389 2.6489023631 5.4359203532
5 16 0.0031577956 2.0932972090 1.8045190092
6 16 2.1174230033 -0.0055378050 8.3924582788
7 4 2.7286325500 3.8853675410 10.1470923015
8 4 0.3835895536 3.1061087710 2.8999086046
9 4 1.5823806373 2.0918303924 6.5295142309
10 4 3.1017243122 0.3844089407 7.9340088648
11 4 1.8507057433 1.6227718256 4.3055022481
12 4 3.8849648927 2.7266635321 0.7132832910
13 4 1.2651271344 1.9183114002 1.4569368062
14 4 0.3769921014 0.0001247163 7.1515302953
15 4 2.7838448901 1.9368814542 4.4754593133
16 4 1.1170146626 0.0018308877 8.5267673140
17 4 2.0845398936 1.3097340287 6.4398474390
18 4 1.9252164804 -0.0087686220 5.3066107870
ITEM: TIMESTEP
5
ITEM: NUMBER OF ATOMS
18
ITEM: BOX BOUNDS pp pp pp
-0.0 4.7333213
-0.0 4.10115034
-0.0 10.83966
ITEM: ATOMS id type x y z
1 7 0.0063924376 2.0317091534 6.9443406631
2 7 2.0248773264 0.0172757182 3.4190356957
3 7 2.5827838661 2.5851560059 -0.0007175729
4 16 2.6376592581 2.6508146342 5.4386167952
5 16 0.0036246063 2.0909735002 1.8036031796
6 16 2.1265136929 -0.0036641000 8.3913209013
7 4 2.7304768482 3.8852047531 10.1482233333
8 4 0.3803122746 3.1038175071 2.8998549184
9 4 1.5753403914 2.1009985805 6.5321456407
10 4 3.1036775455 0.3867180827 7.9338003689
11 4 1.8457698003 1.6217532558 4.3034005836
12 4 3.8846071602 2.7263118977 0.7123854915
13 4 1.2642489571 1.9181525796 1.4564423070
14 4 0.3740874217 -0.0004575720 7.1514095655
15 4 2.7928620221 1.9377572640 4.4763022481
16 4 1.1155680928 0.0032986969 8.5275778574
17 4 2.0902659320 1.2996092843 6.4407451294
18 4 1.9251505664 -0.0084224066 5.3057126773
ITEM: TIMESTEP
6
ITEM: NUMBER OF ATOMS
18
ITEM: BOX BOUNDS pp pp pp
-0.0 4.7333213
-0.0 4.10115034
-0.0 10.83966
ITEM: ATOMS id type x y z
1 7 0.0018416136 2.0301603358 6.9412961507
2 7 2.0250196730 0.0176676610 3.4152796061
3 7 2.5786186107 2.5879243118 0.0004426830
4 16 2.6391949574 2.6514580683 5.4386652519
5 16 0.0079616601 2.0910392775 1.8021809673
6 16 2.1319752671 -0.0066211425 8.3945392581
7 4 2.7277929532 3.8880488321 10.1534021217
8 4 0.3804464946 3.1020303830 2.8978208906
9 4 1.5701040866 2.1121495029 6.5334425129
10 4 3.1048711632 0.3871124602 7.9333799212
11 4 1.8393097559 1.6188340284 4.3017643990
12 4 3.8840460551 2.7253568209 0.7106496172
13 4 1.2667521416 1.9191268831 1.4540774722
14 4 0.3725769226 0.0010302601 7.1499468117
15 4 2.7986978571 1.9373219537 4.4769587140
16 4 1.1126680099 0.0021719755 8.5313311214
17 4 2.0959502082 1.2916650990 6.4383754141
18 4 1.9258339029 -0.0094158685 5.3078621610
ITEM: TIMESTEP
7
ITEM: NUMBER OF ATOMS
18
ITEM: BOX BOUNDS pp pp pp
-0.0 4.7333213
-0.0 4.10115034
-0.0 10.83966
ITEM: ATOMS id type x y z
1 7 -0.0008314735 2.0309476400 6.9447092396
2 7 2.0227655291 0.0239884571 3.4187163084
3 7 2.5762766082 2.5905474081 0.0014041634
4 16 2.6384543102 2.6528948843 5.4406192104
5 16 0.0026906634 2.0919886655 1.8016713898
6 16 2.1361449616 -0.0055266988 8.3958144501
7 4 2.7280290781 3.8916507153 10.1522371652
8 4 0.3792973054 3.0981682372 2.8992572533
9 4 1.5668916834 2.1179047722 6.5339503651
10 4 3.1085948210 0.3870686741 7.9329956968
11 4 1.8346462723 1.6153923110 4.3011381639
12 4 3.8857233837 2.7248768552 0.7084333888
13 4 1.2672220312 1.9183153892 1.4540434473
14 4 0.3731278843 0.0020203584 7.1484549782
15 4 2.8057934732 1.9368730746 4.4763018095
16 4 1.1065918141 0.0038455204 8.5340184495
17 4 2.1003140699 1.2846341446 6.4388590950
18 4 1.9265217590 -0.0108537531 5.3049198632
ITEM: TIMESTEP
8
ITEM: NUMBER OF ATOMS
18
ITEM: BOX BOUNDS pp pp pp
-0.0 4.7333213
-0.0 4.10115034
-0.0 10.83966
ITEM: ATOMS id type x y z
1 7 -0.0021358925 2.0258073540 6.9429050452
2 7 2.0241788016 0.0268966658 3.4168952523
3 7 2.5738025427 2.5875167080 0.0013796400
4 16 2.6429868084 2.6556592161 5.4457142937
5 16 -0.0031581770 2.0901751540 1.8068157367
6 16 2.1377543897 -0.0063157895 8.3913970644
7 4 2.7308753374 3.8969193842 10.1497669011
8 4 0.3757203791 3.0992605635 2.8975051675
9 4 1.5628985664 2.1250129623 6.5341779289
10 4 3.1055842174 0.3899399648 7.9297891123
11 4 1.8283787179 1.6110457247 4.3033363176
12 4 3.8885012782 2.7228158306 0.7109567276
13 4 1.2693643972 1.9202096965 1.4553309450
14 4 0.3754209329 0.0047154876 7.1448371141
15 4 2.8104207381 1.9377430901 4.4712406719
16 4 1.1030629233 0.0008798029 8.5357174611
17 4 2.1072928005 1.2764416841 6.4424507595
18 4 1.9259306441 -0.0132571478 5.3075209373
ITEM: TIMESTEP
9
ITEM: NUMBER OF ATOMS
18
ITEM: BOX BOUNDS pp pp pp
-0.0 4.7333213
-0.0 4.10115034
-0.0 10.83966
ITEM: ATOMS id type x y z
1 7 -0.0041309775 2.0299755018 6.9412569056
2 7 2.0226993996 0.0302187918 3.4181054593
3 7 2.5739725482 2.5909127516 0.0007595760
4 16 2.6435187022 2.6570017205 5.4512974516
5 16 -0.0018100193 2.0921284538 1.8066232149
6 16 2.1440925402 -0.0070471952 8.3927572738
7 4 2.7295622389 3.8955181911 10.1489516952
8 4 0.3755471378 3.0999828508 2.9004807304
9 4 1.5598090893 2.1294760289 6.5353409042
10 4 3.1079801656 0.3923155676 7.9287488685
11 4 1.8210930612 1.6073056956 4.3006478593
12 4 3.8900637502 2.7230730070 0.7082171755
13 4 1.2674719413 1.9198852336 1.4546332846
14 4 0.3749583436 0.0026893730 7.1460279307
15 4 2.8125299071 1.9397987086 4.4729738880
16 4 1.1001446663 0.0032885144 8.5356122036
17 4 2.1119051023 1.2698070302 6.4412686975
18 4 1.9289161861 -0.0168498159 5.3062717146
ITEM: TIMESTEP
10
ITEM: NUMBER OF ATOMS
18
ITEM: BOX BOUNDS pp pp pp
-0.0 4.7333213
-0.0 4.10115034
-0.0 10.83966
ITEM: ATOMS id type x y z
1 7 -0.0054722401 2.0332225435 6.9423745935
2 7 2.0296085956 0.0345763817 3.4170139000
3 7 2.5695636162 2.5857736297 0.0020407997
4 16 2.6454328422 2.6596082878 5.4548589756
5 16 -0.0055524028 2.0918096637 1.8036348156
6 16 2.1464654022 -0.0049818922 8.3940899215
7 4 2.7257349663 3.8942669123 10.1483593846
8 4 0.3760665506 3.1006304970 2.8989563447
9 4 1.5541455978 2.1330911158 6.5377254755
10 4 3.1082890452 0.3927113719 7.9287813147
11 4 1.8175112440 1.6042416057 4.2965867191
12 4 3.8910925590 2.7236945921 0.7077269137
13 4 1.2671579933 1.9187045043 1.4543380698
14 4 0.3735586802 0.0059016431 7.1469903380
15 4 2.8208964876 1.9390295743 4.4736586245
16 4 1.0953316282 0.0048093643 8.5362543038
17 4 2.1173752079 1.2655223734 6.4419483057
18 4 1.9320882629 -0.0196911171 5.3062870127
ITEM: TIMESTEP
11
ITEM: NUMBER OF ATOMS
18
ITEM: BOX BOUNDS pp pp pp
-0.0 4.7333213
-0.0 4.10115034
-0.0 10.83966
ITEM: ATOMS id type x y z
1 7 -0.0017986333 2.0321162669 6.9429172447
2 7 2.0262133655 0.0319838986 3.4152303647
3 7 2.5687431435 2.5870400383 0.0037729950
4 16 2.6523595282 2.6642494000 5.4601034618
5 16 -0.0040517642 2.0933889760 1.8026167961
6 16 2.1455481936 -0.0054157027 8.3974216941
7 4 2.7261902177 3.8944410260 10.1498342788
8 4 0.3762595853 3.0982225724 2.8991277490
9 4 1.5471177070 2.1393544620 6.5399847769
10 4 3.1067183474 0.3941742519 7.9279022847
11 4 1.8119487732 1.6038866014 4.2945876556
12 4 3.8921593371 2.7222209500 0.7074375498
13 4 1.2688653932 1.9223095939 1.4538071574
14 4 0.3725953008 0.0040785682 7.1454398758
15 4 2.8254324475 1.9402926986 4.4762840583
16 4 1.0916716009 0.0065930470 8.5360209379
17 4 2.1236853523 1.2599275301 6.4393673354
18 4 1.9325285117 -0.0249931246 5.3033385535
ITEM: TIMESTEP
12
ITEM: NUMBER OF ATOMS
18
ITEM: BOX BOUNDS pp pp pp
-0.0 4.7333213
-0.0 4.10115034
-0.0 10.83966
ITEM: ATOMS id type x y z
1 7 -0.0030129825 2.0273700947 6.9473476081
2 7 2.0224386398 0.0328858531 3.4097074490
3 7 2.5731056308 2.5831742970 0.0051103658
4 16 2.6551663860 2.6685474598 5.4653672251
5 16 -0.0070522121 2.0921298645 1.7991869534
6 16 2.1447075835 -0.0064445583 8.3952807709
7 4 2.7253200930 3.8950119519 10.1499059920
8 4 0.3753908565 3.0993208638 2.9009437857
9 4 1.5437068292 2.1410096193 6.5387954161
10 4 3.1085957552 0.3925904124 7.9261021669
11 4 1.8073696968 1.6037078553 4.2927981964
12 4 3.8897189251 2.7221773268 0.7075364752
13 4 1.2690344596 1.9232154617 1.4540685315
14 4 0.3705784882 0.0058384681 7.1456745591
15 4 2.8335953331 1.9404163394 4.4770404273
16 4 1.0897558259 0.0065856575 8.5378831678
17 4 2.1287987259 1.2552669325 6.4414314916
18 4 1.9341250338 -0.0229597089 5.3010372610
ITEM: TIMESTEP
13
ITEM: NUMBER OF ATOMS
18
ITEM: BOX BOUNDS pp pp pp
-0.0 4.7333213
-0.0 4.10115034
-0.0 10.83966
ITEM: ATOMS id type x y z
1 7 -0.0007194268 2.0282913591 6.9479255677
2 7 2.0216588005 0.0385294713 3.4124613058
3 7 2.5709531595 2.5842439785 0.0083016948
4 16 2.6601320383 2.6715254312 5.4680264408
5 16 -0.0098317678 2.0904318548 1.7994825913
6 16 2.1462594219 -0.0078242160 8.3906865466
7 4 2.7220988677 3.8956972356 10.1500443503
8 4 0.3734119634 3.0967611455 2.8985442163
9 4 1.5448173135 2.1446203753 6.5401350812
10 4 3.1093312908 0.3922484473 7.9244286933
11 4 1.8047814469 1.6043371883 4.2897631458
12 4 3.8902966119 2.7210192691 0.7097523508
13 4 1.2681645302 1.9234410888 1.4545647413
14 4 0.3701126645 0.0052694920 7.1471990212
15 4 2.8377706956 1.9417611751 4.4760837919
16 4 1.0899057886 0.0084759578 8.5400061626
17 4 2.1283372679 1.2524291028 6.4398771249
18 4 1.9350678443 -0.0266118852 5.3013684321
ITEM: TIMESTEP
14
ITEM: NUMBER OF ATOMS
18
ITEM: BOX BOUNDS pp pp pp
-0.0 4.7333213
-0.0 4.10115034
-0.0 10.83966
ITEM: ATOMS id type x y z
1 7 -0.0011823506 2.0262217338 6.9466982653
2 7 2.0149756990 0.0406861937 3.4066751238
3 7 2.5675876357 2.5853144882 0.0089566651
4 16 2.6629842773 2.6746027787 5.4713013567
5 16 -0.0118989002 2.0960053140 1.7963950106
6 16 2.1473966182 -0.0111443300 8.3935543815
7 4 2.7248757664 3.8948171222 10.1510644175
8 4 0.3741404945 3.0955404174 2.8967110242
9 4 1.5413686441 2.1472226903 6.5413999070
10 4 3.1109093685 0.3920562835 7.9236892258
11 4 1.7987760815 1.6024642736 4.2877796079
12 4 3.8924294286 2.7229149501 0.7089626189
13 4 1.2659618962 1.9211923019 1.4511032962
14 4 0.3705543558 0.0071798749 7.1490939579
15 4 2.8457140185 1.9418553525 4.4745681050
16 4 1.0874949316 0.0092222781 8.5440550325
17 4 2.1305964990 1.2477407650 6.4422985302
18 4 1.9340213341 -0.0262141368 5.3016259241
ITEM: TIMESTEP
15
ITEM: NUMBER OF ATOMS
18
ITEM: BOX BOUNDS pp pp pp
-0.0 4.7333213
-0.0 4.10115034
-0.0 10.83966
ITEM: ATOMS id type x y z
1 7 0.0010793536 2.0283485420 6.9476432480
2 7 2.0100608471 0.0431507838 3.4084135979
3 7 2.5686728232 2.5888415310 0.0091747037
4 16 2.6622588642 2.6750154563 5.4730603621
5 16 -0.0133408853 2.0958790111 1.7970083880
6 16 2.1483708991 -0.0112233446 8.3933038235
7 4 2.7224071841 3.8951881160 10.1506151742
8 4 0.3734794255 3.0923721483 2.8941331562
9 4 1.5380274105 2.1534605792 6.5407356485
10 4 3.1118339195 0.3937897199 7.9233115375
11 4 1.7941795096 1.6000781346 4.2849870994
12 4 3.8937451686 2.7212796049 0.7102510394
13 4 1.2678927778 1.9196883924 1.4502352470
14 4 0.3690128110 0.0067712183 7.1483576149
15 4 2.8522153322 1.9444279469 4.4751918544
16 4 1.0868636916 0.0090157849 8.5472775611
17 4 2.1354968858 1.2442141001 6.4434447850
18 4 1.9329405189 -0.0273776802 5.3015434104
ITEM: TIMESTEP
16
ITEM: NUMBER OF ATOMS
18
ITEM: BOX BOUNDS pp pp pp
-0.0 4.7333213
-0.0 4.10115034
-0.0 10.83966
ITEM: ATOMS id type x y z
1 7 0.0035392209 2.0304264127 6.9461988046
2 7 2.0070934283 0.0468256800 3.4074885435
3 7 2.5646507212 2.5964218651 0.0111018403
4 16 2.6609457127 2.6732196943 5.4714850406
5 16 -0.0168595973 2.0991062553 1.7978566844
6 16 2.1525969149 -0.0098667484 8.3961809692
7 4 2.7201499335 3.8957036501 10.1508638878
8 4 0.3772401700 3.0905676455 2.8948799568
9 4 1.5350846691 2.1555281932 6.5414264280
10 4 3.1122066355 0.3947726874 7.9243287423
11 4 1.7896777861 1.5986276840 4.2840039391
12 4 3.8914638698 2.7204687928 0.7121429832
13 4 1.2663269622 1.9190016545 1.4480777367
14 4 0.3665375780 0.0072260667 7.1465622181
15 4 2.8577228263 1.9425780864 4.4751406270
16 4 1.0897098995 0.0102443190 8.5475161126
17 4 2.1364557538 1.2417837546 6.4428775231
18 4 1.9375182429 -0.0300523575 5.3012020446
ITEM: TIMESTEP
17
ITEM: NUMBER OF ATOMS
18
ITEM: BOX BOUNDS pp pp pp
-0.0 4.7333213
-0.0 4.10115034
-0.0 10.83966
ITEM: ATOMS id type x y z
1 7 0.0037771670 2.0245792551 6.9442022279
2 7 2.0074052901 0.0473833361 3.4092712955
3 7 2.5651808907 2.5948968134 0.0152134430
4 16 2.6628030172 2.6793953243 5.4720134533
5 16 -0.0167471251 2.0991099306 1.7971976334
6 16 2.1528854387 -0.0121418273 8.3971296805
7 4 2.7192426898 3.8951391208 10.1508888152
8 4 0.3804610498 3.0898249276 2.8925019349
9 4 1.5328316368 2.1597612728 6.5452789078
10 4 3.1123635181 0.3944442504 7.9243955424
11 4 1.7824776629 1.6012504852 4.2834430198
12 4 3.8964409714 2.7182281763 0.7110620424
13 4 1.2669697766 1.9182761549 1.4471446390
14 4 0.3657506486 0.0076337780 7.1459280105
15 4 2.8617333239 1.9449932883 4.4733306454
16 4 1.0884649274 0.0089967427 8.5493647442
17 4 2.1367856933 1.2408674820 6.4409629013
18 4 1.9348927457 -0.0326975150 5.3028313939
ITEM: TIMESTEP
18
ITEM: NUMBER OF ATOMS
18
ITEM: BOX BOUNDS pp pp pp
-0.0 4.7333213
-0.0 4.10115034
-0.0 10.83966
ITEM: ATOMS id type x y z
1 7 0.0045821307 2.0292336471 6.9409058459
2 7 2.0038275968 0.0439147884 3.4165750604
3 7 2.5675423158 2.5971120583 0.0111748895
4 16 2.6651244513 2.6796047233 5.4720503756
5 16 -0.0167081695 2.0993390669 1.7946559715
6 16 2.1521605909 -0.0160497564 8.4025287542
7 4 2.7198954455 3.8941681172 10.1533822200
8 4 0.3805844478 3.0896545884 2.8905693530
9 4 1.5310504027 2.1644474447 6.5453000871
10 4 3.1142078744 0.3956129639 7.9230780983
11 4 1.7785273199 1.6019140668 4.2831794134
12 4 3.8964969833 2.7200367441 0.7105570165
13 4 1.2631259008 1.9178153633 1.4484393362
14 4 0.3667095602 0.0067912521 7.1467705301
15 4 2.8639630736 1.9445648270 4.4708562752
16 4 1.0892595656 0.0090032808 8.5515045227
17 4 2.1391513985 1.2373458413 6.4406717804
18 4 1.9346622226 -0.0339046352 5.3011883029
ITEM: TIMESTEP
19
ITEM: NUMBER OF ATOMS
18
ITEM: BOX BOUNDS pp pp pp
-0.0 4.7333213
-0.0 4.10115034
-0.0 10.83966
ITEM: ATOMS id type x y z
1 7 0.0014763991 2.0249396478 6.9418702421
2 7 2.0064672946 0.0446699557 3.4144422783
3 7 2.5661162801 2.5953925656 0.0115471773
4 16 2.6658551496 2.6808101876 5.4773796730
5 16 -0.0149008018 2.0989113206 1.7931264710
6 16 2.1526123342 -0.0149204180 8.4024218214
7 4 2.7194735575 3.8950787475 10.1517972921
8 4 0.3785150170 3.0896031482 2.8944383934
9 4 1.5294706323 2.1695391588 6.5437544758
10 4 3.1145665041 0.3951843451 7.9226429041
11 4 1.7742160590 1.6002831276 4.2820982460
12 4 3.8959393590 2.7200921013 0.7114409218
13 4 1.2638126775 1.9158140450 1.4465871128
14 4 0.3653921425 0.0054712510 7.1488835486
15 4 2.8674031685 1.9477271668 4.4701551991
16 4 1.0900712012 0.0104189690 8.5514934541
17 4 2.1415264356 1.2354285392 6.4401052162
18 4 1.9362373356 -0.0363548231 5.3002895686
ITEM: TIMESTEP
20
ITEM: NUMBER OF ATOMS
18
ITEM: BOX BOUNDS pp pp pp
-0.0 4.7333213
-0.0 4.10115034
-0.0 10.83966
ITEM: ATOMS id type x y z
1 7 0.0007927998 2.0241532401 6.9416074274
2 7 2.0006794445 0.0475590862 3.4168706170
3 7 2.5656782910 2.5931572827 0.0089858915
4 16 2.6664097541 2.6823495014 5.4767757649
5 16 -0.0146742219 2.0986518936 1.7928309645
6 16 2.1558434114 -0.0176577438 8.4032799337
7 4 2.7191432856 3.8935673210 10.1524830113
8 4 0.3776945004 3.0890215788 2.8977282235
9 4 1.5281564518 2.1730386058 6.5428100563
10 4 3.1163592225 0.3962540082 7.9240953474
11 4 1.7734064703 1.5986810061 4.2784884438
12 4 3.8949705403 2.7199336719 0.7122349582
13 4 1.2618541613 1.9134178830 1.4485637268
14 4 0.3658677005 0.0056590701 7.1464845492
15 4 2.8717106952 1.9511854642 4.4680062318
16 4 1.0879487103 0.0110175503 8.5484634452
17 4 2.1442812998 1.2350138873 6.4427933436
18 4 1.9354722274 -0.0376264688 5.3017030925
ITEM: TIMESTEP
21
ITEM: NUMBER OF ATOMS
18
ITEM: BOX BOUNDS pp pp pp
-0.0 4.7333213
-0.0 4.10115034
-0.0 10.83966
ITEM: ATOMS id type x y z
1 7 -0.0014396034 2.0230204150 6.9413017542
2 7 1.9942966549 0.0499602944 3.4157543916
3 7 2.5604809623 2.5895193732 0.0117691359
4 16 2.6671349501 2.6844767465 5.4777338971
5 16 -0.0128187518 2.0956532288 1.7981800981
6 16 2.1579513200 -0.0162290009 8.4023629146
7 4 2.7179998111 3.8910332561 10.1507439636
8 4 0.3771579873 3.0875219378 2.8971981015
9 4 1.5248362563 2.1751891569 6.5469731505
10 4 3.1189008806 0.3964180515 7.9203915575
11 4 1.7702073899 1.5969911158 4.2777097016
12 4 3.8985388133 2.7194581922 0.7109938526
13 4 1.2625493299 1.9152700124 1.4459930841
14 4 0.3641563470 0.0053083442 7.1436700679
15 4 2.8771876020 1.9527145250 4.4684509666
16 4 1.0866742774 0.0136351555 8.5517272878
17 4 2.1463304503 1.2341729085 6.4462838434
18 4 1.9347045039 -0.0380005118 5.3001541058
ITEM: TIMESTEP
22
ITEM: NUMBER OF ATOMS
18
ITEM: BOX BOUNDS pp pp pp
-0.0 4.7333213
-0.0 4.10115034
-0.0 10.83966
ITEM: ATOMS id type x y z
1 7 -0.0066493241 2.0177639085 6.9418107094
2 7 1.9977651910 0.0465458253 3.4145347744
3 7 2.5591192464 2.5897298614 0.0105782521
4 16 2.6698206765 2.6859786131 5.4812242903
5 16 -0.0138327746 2.0962186669 1.8000583820
6 16 2.1613252131 -0.0180778879 8.4064464548
7 4 2.7173042896 3.8930719724 10.1485721162
8 4 0.3763639062 3.0865190528 2.8967867922
9 4 1.5248280831 2.1785718318 6.5496028429
10 4 3.1194489651 0.3953376181 7.9183795160
11 4 1.7679277942 1.5983934755 4.2785773964
12 4 3.8972369229 2.7182978918 0.7101896469
13 4 1.2637612949 1.9170208938 1.4432495445
14 4 0.3636087446 0.0052610596 7.1436031091
15 4 2.8815808479 1.9550524179 4.4668724063
16 4 1.0851385859 0.0131354727 8.5560139810
17 4 2.1470186230 1.2307286741 6.4476200355
18 4 1.9332880026 -0.0387114342 5.2961381557
ITEM: TIMESTEP
23
ITEM: NUMBER OF ATOMS
18
ITEM: BOX BOUNDS pp pp pp
-0.0 4.7333213
-0.0 4.10115034
-0.0 10.83966
ITEM: ATOMS id type x y z
1 7 -0.0035229096 2.0165585790 6.9408647311
2 7 2.0005014450 0.0458192884 3.4162074756
3 7 2.5600298588 2.5879772896 0.0199655877
4 16 2.6695869869 2.6875273734 5.4817619985
5 16 -0.0114752565 2.0990846330 1.8030216712
6 16 2.1634128985 -0.0189857925 8.4059019359
7 4 2.7144908884 3.8897325784 10.1502429851
8 4 0.3777695867 3.0860843013 2.8959917684
9 4 1.5214502120 2.1791597811 6.5485574378
10 4 3.1221561366 0.3976446845 7.9197410622
11 4 1.7638468395 1.5984959080 4.2719246261
12 4 3.8957496748 2.7184517500 0.7085123946
13 4 1.2644372960 1.9178849510 1.4454820964
14 4 0.3632979260 0.0044185150 7.1429662282
15 4 2.8820665483 1.9583017771 4.4661273834
16 4 1.0846537323 0.0131415546 8.5571062830
17 4 2.1469702185 1.2285309813 6.4487092596
18 4 1.9357457503 -0.0398173224 5.2948663902
ITEM: TIMESTEP
24
ITEM: NUMBER OF ATOMS
18
ITEM: BOX BOUNDS pp pp pp
-0.0 4.7333213
-0.0 4.10115034
-0.0 10.83966
ITEM: ATOMS id type x y z
1 7 -0.0016513347 2.0187208397 6.9379355618
2 7 2.0012701426 0.0482301388 3.4169358555
3 7 2.5573203976 2.5855176764 0.0208247453
4 16 2.6700616871 2.6898090709 5.4852488054
5 16 -0.0110364946 2.0969949972 1.8012407428
6 16 2.1649666149 -0.0181239528 8.4051077331
7 4 2.7151754658 3.8880099921 10.1505312269
8 4 0.3781657340 3.0837626247 2.8938856361
9 4 1.5172106834 2.1790483446 6.5481532826
10 4 3.1219008279 0.3976167536 7.9223000143
11 4 1.7584268042 1.5959975604 4.2710500096
12 4 3.8984721100 2.7205735801 0.7074890652
13 4 1.2641905019 1.9179658340 1.4488750062
14 4 0.3625876570 0.0061994406 7.1410561815
15 4 2.8852543914 1.9582346655 4.4652345052
16 4 1.0837762273 0.0178832911 8.5591434708
17 4 2.1476874278 1.2255087605 6.4487268496
18 4 1.9384082847 -0.0401432958 5.2937540399
ITEM: TIMESTEP
25
ITEM: NUMBER OF ATOMS
18
ITEM: BOX BOUNDS pp pp pp
-0.0 4.7333213
-0.0 4.10115034
-0.0 10.83966
ITEM: ATOMS id type x y z
1 7 0.0019205749 2.0190734865 6.9368426198
2 7 1.9992727168 0.0495810405 3.4159212647
3 7 2.5573627359 2.5845049893 0.0176238604
4 16 2.6721266350 2.6965606812 5.4865442704
5 16 -0.0075963685 2.0991779487 1.7996645568
6 16 2.1642230741 -0.0188824306 8.4071652368
7 4 2.7136874056 3.8873095413 10.1513066435
8 4 0.3758646535 3.0818050351 2.8896384153
9 4 1.5139291776 2.1814270001 6.5494560427
10 4 3.1218843606 0.3944326540 7.9260369615
11 4 1.7564860798 1.5952078360 4.2696272320
12 4 3.8982150893 2.7197990794 0.7054776344
13 4 1.2646545555 1.9162694524 1.4485298319
14 4 0.3627032524 0.0109380446 7.1388976262
15 4 2.8924863984 1.9593761829 4.4658645351
16 4 1.0827022416 0.0195451136 8.5621155717
17 4 2.1475516674 1.2214876902 6.4497227621
18 4 1.9377909235 -0.0418451690 5.2944543889
ITEM: TIMESTEP
26
ITEM: NUMBER OF ATOMS
18
ITEM: BOX BOUNDS pp pp pp
-0.0 4.7333213
-0.0 4.10115034
-0.0 10.83966
ITEM: ATOMS id type x y z
1 7 0.0053503247 2.0174303386 6.9426966483
2 7 1.9973073538 0.0447428300 3.4119783188
3 7 2.5535983166 2.5825205233 0.0192982587
4 16 2.6728096345 2.6995313464 5.4831884780
5 16 -0.0077903144 2.0978700624 1.8014464354
6 16 2.1620378671 -0.0200293061 8.4097956301
7 4 2.7130459513 3.8849628899 10.1522445844
8 4 0.3750932202 3.0829670167 2.8885775690
9 4 1.5115758247 2.1853208290 6.5526897824
10 4 3.1186913213 0.3948436568 7.9245630284
11 4 1.7574385236 1.5909320626 4.2675869818
12 4 3.8964972987 2.7174237159 0.7035408014
13 4 1.2637345247 1.9171271211 1.4520977319
14 4 0.3643869693 0.0140840468 7.1377766251
15 4 2.8964470675 1.9616750470 4.4666350128
16 4 1.0821417164 0.0233154287 8.5612445364
17 4 2.1515504569 1.2201492191 6.4496070149
18 4 1.9391584698 -0.0442491279 5.2926528058
ITEM: TIMESTEP
27
ITEM: NUMBER OF ATOMS
18
ITEM: BOX BOUNDS pp pp pp
-0.0 4.7333213
-0.0 4.10115034
-0.0 10.83966
ITEM: ATOMS id type x y z
1 7 0.0000974300 2.0141797272 6.9445940486
2 7 1.9982691991 0.0452601651 3.4131921784
3 7 2.5536215714 2.5833058674 0.0204897636
4 16 2.6707311756 2.6999839793 5.4825517742
5 16 -0.0057800093 2.1019711321 1.8003118472
6 16 2.1636257462 -0.0220442973 8.4098109040
7 4 2.7127748537 3.8855322222 10.1540295737
8 4 0.3728328689 3.0821445805 2.8879469780
9 4 1.5072493914 2.1898716166 6.5505567429
10 4 3.1193754184 0.3936332914 7.9241085511
11 4 1.7533107771 1.5889773929 4.2681760361
12 4 3.8988801544 2.7180789812 0.7039965532
13 4 1.2641142003 1.9176130577 1.4526948554
14 4 0.3646217053 0.0148664857 7.1365794220
15 4 2.9011544407 1.9618294179 4.4686597415
16 4 1.0834567708 0.0219090971 8.5639124812
17 4 2.1529526130 1.2192326048 6.4467023691
18 4 1.9397325927 -0.0458698358 5.2912804160
ITEM: TIMESTEP
28
ITEM: NUMBER OF ATOMS
18
ITEM: BOX BOUNDS pp pp pp
-0.0 4.7333213
-0.0 4.10115034
-0.0 10.83966
ITEM: ATOMS id type x y z
1 7 -0.0021272607 2.0069950113 6.9420262877
2 7 1.9980280277 0.0486985499 3.4151241114
3 7 2.5578259659 2.5857797484 0.0230841133
4 16 2.6695489592 2.7053482465 5.4848597045
5 16 -0.0018683317 2.0983709806 1.8021729288
6 16 2.1626747369 -0.0188182668 8.4120716302
7 4 2.7122909570 3.8851723288 10.1562544500
8 4 0.3750891406 3.0835663619 2.8878206755
9 4 1.5041949533 2.1931901135 6.5511857215
10 4 3.1215115943 0.3933717690 7.9223634228
11 4 1.7520831216 1.5876784013 4.2644761525
12 4 3.8989480372 2.7169201584 0.7026173235
13 4 1.2654083631 1.9187126409 1.4518767190
14 4 0.3619066036 0.0167288533 7.1367670731
15 4 2.9057592257 1.9628227025 4.4719406590
16 4 1.0799681500 0.0216575180 8.5648837440
17 4 2.1536846692 1.2158729126 6.4455157691
18 4 1.9379637453 -0.0502496454 5.2885675501
ITEM: TIMESTEP
29
ITEM: NUMBER OF ATOMS
18
ITEM: BOX BOUNDS pp pp pp
-0.0 4.7333213
-0.0 4.10115034
-0.0 10.83966
ITEM: ATOMS id type x y z
1 7 -0.0023881091 2.0021742729 6.9399281348
2 7 1.9943679140 0.0477892037 3.4147458293
3 7 2.5518393397 2.5877923352 0.0234147859
4 16 2.6739583299 2.7076786248 5.4886885914
5 16 -0.0000862255 2.1028492868 1.7990082264
6 16 2.1609404375 -0.0179598284 8.4135341710
7 4 2.7119164638 3.8843940722 10.1552282496
8 4 0.3753868033 3.0848274411 2.8865445966
9 4 1.5068406883 2.1943875595 6.5519307830
10 4 3.1235040149 0.3950440540 7.9213810425
11 4 1.7477546976 1.5851516934 4.2639522703
12 4 3.8990874430 2.7194501121 0.7022551187
13 4 1.2602877332 1.9173575685 1.4502988751
14 4 0.3583228229 0.0161960731 7.1330155594
15 4 2.9120018566 1.9636991226 4.4717655743
16 4 1.0776129964 0.0235771916 8.5695143292
17 4 2.1547587286 1.2097788829 6.4476933554
18 4 1.9424176908 -0.0514245045 5.2902632351
ITEM: TIMESTEP
30
ITEM: NUMBER OF ATOMS
18
ITEM: BOX BOUNDS pp pp pp
-0.0 4.7333213
-0.0 4.10115034
-0.0 10.83966
ITEM: ATOMS id type x y z
1 7 -0.0072318681 2.0077367521 6.9386004404
2 7 1.9916581774 0.0442564015 3.4213625381
3 7 2.5518715382 2.5881796443 0.0271343994
4 16 2.6752915402 2.7060414761 5.4869746040
5 16 0.0019993771 2.1021094102 1.7978538316
6 16 2.1658491953 -0.0160449377 8.4150260700
7 4 2.7106656213 3.8875323487 10.1527211246
8 4 0.3750276028 3.0840195188 2.8828259328
9 4 1.5058086944 2.1974499572 6.5494053793
10 4 3.1240480998 0.3953072998 7.9212734397
11 4 1.7476097977 1.5844396140 4.2643939817
12 4 3.9002920090 2.7189116870 0.7034264003
13 4 1.2587229639 1.9176412025 1.4506305947
14 4 0.3563672626 0.0152787030 7.1316782837
15 4 2.9157324568 1.9628253537 4.4739171323
16 4 1.0749398475 0.0230498826 8.5736681526
17 4 2.1557854919 1.2063039684 6.4478521434
18 4 1.9429011431 -0.0509403432 5.2895423853
ITEM: TIMESTEP
31
ITEM: NUMBER OF ATOMS
18
ITEM: BOX BOUNDS pp pp pp
-0.0 4.7333213
-0.0 4.10115034
-0.0 10.83966
ITEM: ATOMS id type x y z
1 7 -0.0110656420 2.0061022490 6.9395579326
2 7 1.9946379221 0.0463518432 3.4206240621
3 7 2.5512300759 2.5859262614 0.0254705220
4 16 2.6750015249 2.7103805633 5.4907561318